LAMMPS data file
 900 atoms
 920 bonds
 1660 angles
 2640 dihedrals
 0 impropers
 3 atom types
 4 bond types
 8 angle types
 12 dihedral types
 0 improper types
 -0.500000 25.500000  xlo xhi
 -0.500000 25.500000  ylo yhi
 -0.500000 25.500000  zlo zhi

# Pair Coeffs
#
# 1  C
# 2  H
# 3  O

# Bond Coeffs
#
# 1  C-C
# 2  C-H
# 3  C-O
# 4  H-O

# Angle Coeffs
#
# 1  C-C-C
# 2  C-C-H
# 3  C-C-O
# 4  C-O-C
# 5  C-O-H
# 6  H-C-H
# 7  H-C-O
# 8  O-C-O

# Dihedral Coeffs
#
# 1  C-C-C-C
# 2  C-C-C-H
# 3  C-C-C-O
# 4  C-C-O-C
# 5  C-C-O-H
# 6  H-C-C-H
# 7  H-C-C-O
# 8  H-C-O-C
# 9  H-C-O-H
# 10  O-C-C-O
# 11  O-C-O-C
# 12  O-C-O-H

 Masses

 1 12.010700 # C
 2 1.007940 # H
 3 15.999400 # O

 Atoms

1 1 3 0.000000 10.117000 22.931000 22.787001 # O UNL
2 1 3 0.000000 11.058000 20.796000 23.193001 # O UNL
3 1 3 0.000000 8.921000 23.055000 19.233999 # O UNL
4 1 3 0.000000 12.554000 22.351000 21.142000 # O UNL
5 1 3 0.000000 8.100000 20.849001 24.802000 # O UNL
6 1 3 0.000000 7.420000 19.014000 22.760000 # O UNL
7 1 3 0.000000 9.115000 18.063999 24.490999 # O UNL
8 1 3 0.000000 11.732000 23.535999 18.816000 # O UNL
9 1 3 0.000000 9.261000 20.778999 18.851000 # O UNL
10 1 3 0.000000 6.585000 23.796000 20.565001 # O UNL
11 1 3 0.000000 13.356000 19.576000 24.108000 # O UNL
12 1 1 0.000000 10.196000 22.987000 21.358000 # C UNL
13 1 1 0.000000 11.228000 22.063000 20.672001 # C UNL
14 1 1 0.000000 10.008000 21.705000 23.516001 # C UNL
15 1 1 0.000000 8.824000 22.893999 20.667000 # C UNL
16 1 1 0.000000 8.605000 21.040001 23.465000 # C UNL
17 1 1 0.000000 8.692000 19.686001 22.740000 # C UNL
18 1 1 0.000000 9.732000 18.761999 23.398001 # C UNL
19 1 1 0.000000 10.943000 19.556000 23.907000 # C UNL
20 1 1 0.000000 11.199000 22.237000 19.146999 # C UNL
21 1 1 0.000000 9.765000 22.080999 18.618999 # C UNL
22 1 1 0.000000 7.868000 23.985001 21.167999 # C UNL
23 1 1 0.000000 12.246000 18.783001 23.684999 # C UNL
24 1 2 0.000000 10.560000 24.009001 21.177000 # H UNL
25 1 2 0.000000 11.019000 21.014000 20.899000 # H UNL
26 1 2 0.000000 10.185000 22.014000 24.554001 # H UNL
27 1 2 0.000000 8.350000 21.927000 20.851000 # H UNL
28 1 2 0.000000 7.865000 21.688000 22.992001 # H UNL
29 1 2 0.000000 8.968000 19.847000 21.693001 # H UNL
30 1 2 0.000000 10.027000 17.995001 22.672001 # H UNL
31 1 2 0.000000 10.861000 19.780001 24.980000 # H UNL
32 1 2 0.000000 11.864000 21.496000 18.690001 # H UNL
33 1 2 0.000000 9.756000 22.280001 17.542000 # H UNL
34 1 2 0.000000 7.736000 23.952999 22.253000 # H UNL
35 1 2 0.000000 8.220000 24.983000 20.884001 # H UNL
36 1 2 0.000000 12.397000 18.559000 22.624001 # H UNL
37 1 2 0.000000 12.254000 17.844999 24.249001 # H UNL
38 1 2 0.000000 12.867000 23.117001 20.622000 # H UNL
39 1 2 0.000000 7.890000 19.900000 24.917999 # H UNL
40 1 2 0.000000 6.751000 19.636000 22.416000 # H UNL
41 1 2 0.000000 8.269000 17.726999 24.125000 # H UNL
42 1 2 0.000000 10.985000 24.164000 18.782000 # H UNL
43 1 2 0.000000 8.577000 20.635000 18.172001 # H UNL
44 1 2 0.000000 6.744000 23.787001 19.601999 # H UNL
45 1 2 0.000000 13.233000 20.445999 23.676001 # H UNL
46 2 3 0.000000 12.234000 4.111000 4.709000 # O UNL
47 2 3 0.000000 11.696000 4.841000 6.897000 # O UNL
48 2 3 0.000000 15.398000 5.810000 3.625000 # O UNL
49 2 3 0.000000 11.628000 7.040000 4.892000 # O UNL
50 2 3 0.000000 12.812000 1.678000 7.200000 # O UNL
51 2 3 0.000000 14.997000 2.998000 8.416000 # O UNL
52 2 3 0.000000 12.813000 3.085000 9.828000 # O UNL
53 2 3 0.000000 13.512000 7.929000 3.117000 # O UNL
54 2 3 0.000000 15.842000 6.718000 5.727000 # O UNL
55 2 3 0.000000 16.101999 3.143000 3.206000 # O UNL
56 2 3 0.000000 9.653000 5.966000 8.369000 # O UNL
57 2 1 0.000000 13.093000 5.173000 4.280000 # C UNL
58 2 1 0.000000 12.963000 6.527000 5.014000 # C UNL
59 2 1 0.000000 12.080000 3.736000 6.081000 # C UNL
60 2 1 0.000000 14.569000 4.751000 4.155000 # C UNL
61 2 1 0.000000 13.273000 2.939000 6.675000 # C UNL
62 2 1 0.000000 13.945000 3.756000 7.792000 # C UNL
63 2 1 0.000000 12.934000 4.157000 8.881000 # C UNL
64 2 1 0.000000 11.558000 4.475000 8.278000 # C UNL
65 2 1 0.000000 13.942000 7.564000 4.444000 # C UNL
66 2 1 0.000000 15.369000 6.994000 4.422000 # C UNL
67 2 1 0.000000 14.731000 3.551000 3.212000 # C UNL
68 2 1 0.000000 10.898000 5.655000 8.996000 # C UNL
69 2 2 0.000000 12.745000 5.367000 3.255000 # H UNL
70 2 2 0.000000 13.174000 6.411000 6.081000 # H UNL
71 2 2 0.000000 11.214000 3.061000 6.060000 # H UNL
72 2 2 0.000000 14.986000 4.471000 5.125000 # H UNL
73 2 2 0.000000 13.996000 2.659000 5.908000 # H UNL
74 2 2 0.000000 14.392000 4.661000 7.367000 # H UNL
75 2 2 0.000000 13.340000 5.012000 9.436000 # H UNL
76 2 2 0.000000 10.878000 3.615000 8.343000 # H UNL
77 2 2 0.000000 13.896000 8.472000 5.054000 # H UNL
78 2 2 0.000000 16.035999 7.719000 3.945000 # H UNL
79 2 2 0.000000 14.129000 2.694000 3.526000 # H UNL
80 2 2 0.000000 14.462000 3.815000 2.184000 # H UNL
81 2 2 0.000000 11.521000 6.554000 8.935000 # H UNL
82 2 2 0.000000 10.709000 5.426000 10.049000 # H UNL
83 2 2 0.000000 11.586000 7.487000 4.023000 # H UNL
84 2 2 0.000000 13.075000 1.622000 8.141000 # H UNL
85 2 2 0.000000 15.590000 2.679000 7.709000 # H UNL
86 2 2 0.000000 13.738000 2.831000 10.036000 # H UNL
87 2 2 0.000000 13.960000 7.335000 2.485000 # H UNL
88 2 2 0.000000 16.813999 6.764000 5.671000 # H UNL
89 2 2 0.000000 16.613001 3.939000 2.964000 # H UNL
90 2 2 0.000000 9.854000 6.036000 7.413000 # H UNL
91 3 3 0.000000 13.525000 19.301001 7.464000 # O UNL
92 3 3 0.000000 14.243000 17.341999 6.342000 # O UNL
93 3 3 0.000000 9.978000 18.806999 8.582000 # O UNL
94 3 3 0.000000 12.005000 18.724001 4.946000 # O UNL
95 3 3 0.000000 15.796000 17.347000 9.330000 # O UNL
96 3 3 0.000000 14.032000 15.185000 9.792000 # O UNL
97 3 3 0.000000 15.898000 14.653000 8.058000 # O UNL
98 3 3 0.000000 9.525000 19.485001 5.818000 # O UNL
99 3 3 0.000000 9.930000 16.542999 8.028000 # O UNL
100 3 3 0.000000 11.166000 19.509001 11.006000 # O UNL
101 3 3 0.000000 15.346000 16.483999 3.965000 # O UNL
102 3 1 0.000000 12.104000 19.160999 7.356000 # C UNL
103 3 1 0.000000 11.568000 18.250000 6.229000 # C UNL
104 3 1 0.000000 14.421000 18.186001 7.478000 # C UNL
105 3 1 0.000000 11.418000 18.844000 8.698000 # C UNL
106 3 1 0.000000 14.451000 17.393000 8.813000 # C UNL
107 3 1 0.000000 13.929000 15.964000 8.586000 # C UNL
108 3 1 0.000000 14.723000 15.244000 7.482000 # C UNL
109 3 1 0.000000 15.126000 16.212000 6.361000 # C UNL
110 3 1 0.000000 10.033000 18.202000 6.237000 # C UNL
111 3 1 0.000000 9.518000 17.839001 7.639000 # C UNL
112 3 1 0.000000 11.748000 19.900999 9.761000 # C UNL
113 3 1 0.000000 15.030000 15.539000 4.988000 # C UNL
114 3 2 0.000000 11.781000 20.176001 7.083000 # H UNL
115 3 2 0.000000 11.940000 17.229000 6.346000 # H UNL
116 3 2 0.000000 15.406000 18.653999 7.355000 # H UNL
117 3 2 0.000000 11.735000 17.872000 9.086000 # H UNL
118 3 2 0.000000 13.882000 17.895000 9.597000 # H UNL
119 3 2 0.000000 12.872000 16.000000 8.302000 # H UNL
120 3 2 0.000000 14.117000 14.412000 7.102000 # H UNL
121 3 2 0.000000 16.153999 16.576000 6.488000 # H UNL
122 3 2 0.000000 9.694000 17.469000 5.497000 # H UNL
123 3 2 0.000000 8.424000 17.882999 7.641000 # H UNL
124 3 2 0.000000 12.825000 20.011000 9.914000 # H UNL
125 3 2 0.000000 11.328000 20.875999 9.494000 # H UNL
126 3 2 0.000000 14.014000 15.183000 4.792000 # H UNL
127 3 2 0.000000 15.722000 14.696000 4.908000 # H UNL
128 3 2 0.000000 11.384000 19.434999 4.691000 # H UNL
129 3 2 0.000000 16.046000 16.409000 9.455000 # H UNL
130 3 2 0.000000 13.595000 15.687000 10.506000 # H UNL
131 3 2 0.000000 15.576000 14.190000 8.862000 # H UNL
132 3 2 0.000000 9.393000 20.028999 6.618000 # H UNL
133 3 2 0.000000 9.271000 16.240000 8.679000 # H UNL
134 3 2 0.000000 10.216000 19.378000 10.825000 # H UNL
135 3 2 0.000000 14.793000 17.268999 4.156000 # H UNL
136 4 3 0.000000 12.232000 22.568001 1.395000 # O UNL
137 4 3 0.000000 10.902000 20.635000 1.727000 # O UNL
138 4 3 0.000000 13.940000 23.413000 4.626000 # O UNL
139 4 3 0.000000 10.001000 22.957001 3.358000 # O UNL
140 4 3 0.000000 13.560000 19.656000 -0.094000 # O UNL
141 4 3 0.000000 14.221000 18.349001 2.325000 # O UNL
142 4 3 0.000000 12.157000 17.322001 1.118000 # O UNL
143 4 3 0.000000 11.339000 24.542000 5.143000 # O UNL
144 4 3 0.000000 13.290000 21.444000 5.693000 # O UNL
145 4 3 0.000000 16.145000 23.281000 2.923000 # O UNL
146 4 3 0.000000 8.326000 19.698000 1.432000 # O UNL
147 4 1 0.000000 12.373000 23.025999 2.745000 # C UNL
148 4 1 0.000000 11.316000 22.549000 3.766000 # C UNL
149 4 1 0.000000 12.029000 21.193001 1.054000 # C UNL
150 4 1 0.000000 13.798000 22.851999 3.302000 # C UNL
151 4 1 0.000000 13.296000 20.301001 1.168000 # C UNL
152 4 1 0.000000 13.094000 19.240999 2.264000 # C UNL
153 4 1 0.000000 11.831000 18.400999 2.009000 # C UNL
154 4 1 0.000000 10.705000 19.252001 1.403000 # C UNL
155 4 1 0.000000 11.596000 23.122999 5.163000 # C UNL
156 4 1 0.000000 13.047000 22.832001 5.577000 # C UNL
157 4 1 0.000000 14.837000 23.551001 2.414000 # C UNL
158 4 1 0.000000 9.340000 18.844000 1.964000 # C UNL
159 4 2 0.000000 12.213000 24.108999 2.650000 # H UNL
160 4 2 0.000000 11.313000 21.459000 3.841000 # H UNL
161 4 2 0.000000 11.755000 21.237000 -0.008000 # H UNL
162 4 2 0.000000 14.074000 21.797001 3.368000 # H UNL
163 4 2 0.000000 14.193000 20.892000 1.357000 # H UNL
164 4 2 0.000000 13.005000 19.733999 3.239000 # H UNL
165 4 2 0.000000 11.523000 17.934999 2.953000 # H UNL
166 4 2 0.000000 10.665000 19.153000 0.310000 # H UNL
167 4 2 0.000000 10.892000 22.681999 5.877000 # H UNL
168 4 2 0.000000 13.247000 23.312000 6.541000 # H UNL
169 4 2 0.000000 14.800000 23.200001 1.380000 # H UNL
170 4 2 0.000000 14.699000 24.638000 2.422000 # H UNL
171 4 2 0.000000 9.312000 18.954000 3.053000 # H UNL
172 4 2 0.000000 9.095000 17.809999 1.706000 # H UNL
173 4 2 0.000000 9.897000 23.882999 3.656000 # H UNL
174 4 2 0.000000 13.591000 18.688999 0.055000 # H UNL
175 4 2 0.000000 15.026000 18.893999 2.406000 # H UNL
176 4 2 0.000000 12.980000 16.936001 1.486000 # H UNL
177 4 2 0.000000 12.176000 24.992001 4.921000 # H UNL
178 4 2 0.000000 14.033000 21.356001 6.317000 # H UNL
179 4 2 0.000000 16.129999 23.566999 3.856000 # H UNL
180 4 2 0.000000 8.652000 20.608999 1.574000 # H UNL
181 5 3 0.000000 5.098000 11.520000 12.296000 # O UNL
182 5 3 0.000000 6.359000 12.117000 10.382000 # O UNL
183 5 3 0.000000 1.582000 12.745000 11.841000 # O UNL
184 5 3 0.000000 5.367000 14.478000 11.899000 # O UNL
185 5 3 0.000000 5.845000 8.795000 10.180000 # O UNL
186 5 3 0.000000 4.171000 9.596000 8.046000 # O UNL
187 5 3 0.000000 6.706000 9.921000 7.557000 # O UNL
188 5 3 0.000000 2.844000 15.196000 12.681000 # O UNL
189 5 3 0.000000 1.892000 13.357000 9.612000 # O UNL
190 5 3 0.000000 1.099000 10.050000 12.376000 # O UNL
191 5 3 0.000000 8.663000 13.430000 9.625000 # O UNL
192 5 1 0.000000 4.017000 12.454000 12.202000 # C UNL
193 5 1 0.000000 4.260000 13.733000 11.369000 # C UNL
194 5 1 0.000000 5.823000 11.047000 11.157000 # C UNL
195 5 1 0.000000 2.674000 11.799000 11.830000 # C UNL
196 5 1 0.000000 5.065000 10.003000 10.291000 # C UNL
197 5 1 0.000000 4.793000 10.580000 8.892000 # C UNL
198 5 1 0.000000 6.093000 11.043000 8.211000 # C UNL
199 5 1 0.000000 7.072000 11.649000 9.228000 # C UNL
200 5 1 0.000000 3.018000 14.636000 11.363000 # C UNL
201 5 1 0.000000 1.778000 13.834000 10.939000 # C UNL
202 5 1 0.000000 2.301000 10.685000 12.818000 # C UNL
203 5 1 0.000000 7.813000 12.851000 8.634000 # C UNL
204 5 2 0.000000 3.908000 12.803000 13.239000 # H UNL
205 5 2 0.000000 4.501000 13.480000 10.333000 # H UNL
206 5 2 0.000000 6.686000 10.536000 11.604000 # H UNL
207 5 2 0.000000 2.709000 11.358000 10.831000 # H UNL
208 5 2 0.000000 4.139000 9.677000 10.766000 # H UNL
209 5 2 0.000000 4.109000 11.431000 8.973000 # H UNL
210 5 2 0.000000 5.838000 11.757000 7.419000 # H UNL
211 5 2 0.000000 7.822000 10.917000 9.556000 # H UNL
212 5 2 0.000000 3.190000 15.476000 10.681000 # H UNL
213 5 2 0.000000 0.894000 14.476000 11.012000 # H UNL
214 5 2 0.000000 3.078000 9.919000 12.890000 # H UNL
215 5 2 0.000000 2.110000 11.089000 13.818000 # H UNL
216 5 2 0.000000 7.112000 13.630000 8.318000 # H UNL
217 5 2 0.000000 8.427000 12.557000 7.777000 # H UNL
218 5 2 0.000000 5.009000 15.007000 12.640000 # H UNL
219 5 2 0.000000 5.982000 8.604000 9.230000 # H UNL
220 5 2 0.000000 3.392000 9.249000 8.520000 # H UNL
221 5 2 0.000000 5.976000 9.493000 7.061000 # H UNL
222 5 2 0.000000 2.259000 14.597000 13.184000 # H UNL
223 5 2 0.000000 0.979000 13.240000 9.293000 # H UNL
224 5 2 0.000000 0.441000 10.765000 12.281000 # H UNL
225 5 2 0.000000 8.096000 13.556000 10.413000 # H UNL
226 6 3 0.000000 4.038000 21.181999 20.893999 # O UNL
227 6 3 0.000000 2.430000 19.445999 20.801001 # O UNL
228 6 3 0.000000 2.865000 23.768000 23.344999 # O UNL
229 6 3 0.000000 1.369000 22.062000 19.854000 # O UNL
230 6 3 0.000000 5.067000 18.204000 22.487000 # O UNL
231 6 3 0.000000 3.244000 18.365999 24.643999 # O UNL
232 6 3 0.000000 2.632000 16.534000 22.899000 # O UNL
233 6 3 0.000000 1.287000 24.521000 21.054001 # O UNL
234 6 3 0.000000 1.092000 22.476000 24.134001 # O UNL
235 6 3 0.000000 5.401000 23.230000 24.372999 # O UNL
236 6 3 0.000000 0.857000 18.038000 19.025000 # O UNL
237 6 1 0.000000 3.244000 22.250000 21.422001 # C UNL
238 6 1 0.000000 1.712000 22.143000 21.246000 # C UNL
239 6 1 0.000000 3.765000 19.802000 21.153999 # C UNL
240 6 1 0.000000 3.610000 22.624001 22.870001 # C UNL
241 6 1 0.000000 4.155000 19.318001 22.577000 # C UNL
242 6 1 0.000000 2.895000 18.900999 23.354000 # C UNL
243 6 1 0.000000 2.094000 17.830000 22.593000 # C UNL
244 6 1 0.000000 2.143000 18.066999 21.076000 # C UNL
245 6 1 0.000000 0.998000 23.358000 21.857000 # C UNL
246 6 1 0.000000 1.452000 23.568001 23.309999 # C UNL
247 6 1 0.000000 5.097000 22.982000 22.999001 # C UNL
248 6 1 0.000000 0.797000 17.743999 20.422001 # C UNL
249 6 2 0.000000 3.546000 23.105000 20.801001 # H UNL
250 6 2 0.000000 1.328000 21.243000 21.733000 # H UNL
251 6 2 0.000000 4.415000 19.278999 20.441000 # H UNL
252 6 2 0.000000 3.406000 21.799999 23.558001 # H UNL
253 6 2 0.000000 4.717000 20.077000 23.124001 # H UNL
254 6 2 0.000000 2.258000 19.775999 23.517000 # H UNL
255 6 2 0.000000 1.064000 17.830000 22.969999 # H UNL
256 6 2 0.000000 2.912000 17.448999 20.594000 # H UNL
257 6 2 0.000000 -0.084000 23.198999 21.808001 # H UNL
258 6 2 0.000000 0.988000 24.480000 23.702000 # H UNL
259 6 2 0.000000 5.748000 22.176001 22.650999 # H UNL
260 6 2 0.000000 5.335000 23.893999 22.440001 # H UNL
261 6 2 0.000000 -0.006000 18.357000 20.844000 # H UNL
262 6 2 0.000000 0.538000 16.688000 20.542999 # H UNL
263 6 2 0.000000 1.361000 22.981001 19.521000 # H UNL
264 6 2 0.000000 4.683000 17.452000 22.982000 # H UNL
265 6 2 0.000000 3.819000 19.017000 25.087999 # H UNL
266 6 2 0.000000 2.723000 16.527000 23.875999 # H UNL
267 6 2 0.000000 2.080000 24.950001 21.426001 # H UNL
268 6 2 0.000000 1.032000 22.834000 25.038000 # H UNL
269 6 2 0.000000 4.776000 23.922001 24.663000 # H UNL
270 6 2 0.000000 1.215000 18.947001 18.966999 # H UNL
271 7 3 0.000000 12.254000 6.824000 16.368999 # O UNL
272 7 3 0.000000 14.346000 6.584000 17.454000 # O UNL
273 7 3 0.000000 12.020000 4.258000 13.642000 # O UNL
274 7 3 0.000000 14.606000 7.379000 14.596000 # O UNL
275 7 3 0.000000 12.031000 5.379000 19.582001 # O UNL
276 7 3 0.000000 13.274000 2.930000 18.903999 # O UNL
277 7 3 0.000000 14.774000 4.493000 20.346001 # O UNL
278 7 3 0.000000 13.631000 6.240000 12.306000 # O UNL
279 7 3 0.000000 13.956000 3.131000 14.290000 # O UNL
280 7 3 0.000000 9.677000 3.697000 15.048000 # O UNL
281 7 3 0.000000 16.594000 8.011000 18.172001 # O UNL
282 7 1 0.000000 12.530000 6.183000 15.118000 # C UNL
283 7 1 0.000000 14.012000 6.075000 14.693000 # C UNL
284 7 1 0.000000 12.929000 6.487000 17.584999 # C UNL
285 7 1 0.000000 11.806000 4.835000 14.950000 # C UNL
286 7 1 0.000000 12.478000 5.149000 18.230000 # C UNL
287 7 1 0.000000 13.645000 4.146000 18.229000 # C UNL
288 7 1 0.000000 14.885000 4.725000 18.933001 # C UNL
289 7 1 0.000000 15.030000 6.230000 18.664000 # C UNL
290 7 1 0.000000 14.149000 5.372000 13.335000 # C UNL
291 7 1 0.000000 13.399000 4.030000 13.351000 # C UNL
292 7 1 0.000000 10.288000 4.988000 15.121000 # C UNL
293 7 1 0.000000 16.499001 6.621000 18.487000 # C UNL
294 7 2 0.000000 12.072000 6.868000 14.390000 # H UNL
295 7 2 0.000000 14.586000 5.507000 15.430000 # H UNL
296 7 2 0.000000 12.634000 7.295000 18.267000 # H UNL
297 7 2 0.000000 12.151000 4.103000 15.685000 # H UNL
298 7 2 0.000000 11.604000 4.730000 17.730000 # H UNL
299 7 2 0.000000 13.907000 3.889000 17.197001 # H UNL
300 7 2 0.000000 15.768000 4.167000 18.600000 # H UNL
301 7 2 0.000000 14.616000 6.831000 19.485001 # H UNL
302 7 2 0.000000 15.212000 5.220000 13.117000 # H UNL
303 7 2 0.000000 13.448000 3.581000 12.353000 # H UNL
304 7 2 0.000000 10.024000 5.430000 16.084999 # H UNL
305 7 2 0.000000 9.859000 5.600000 14.321000 # H UNL
306 7 2 0.000000 16.957001 6.073000 17.656000 # H UNL
307 7 2 0.000000 17.076000 6.431000 19.396999 # H UNL
308 7 2 0.000000 14.360000 7.726000 13.716000 # H UNL
309 7 2 0.000000 12.553000 4.805000 20.180000 # H UNL
310 7 2 0.000000 12.442000 2.613000 18.504000 # H UNL
311 7 2 0.000000 14.517000 3.549000 20.424000 # H UNL
312 7 2 0.000000 12.686000 6.028000 12.186000 # H UNL
313 7 2 0.000000 13.727000 2.239000 13.970000 # H UNL
314 7 2 0.000000 9.968000 3.314000 14.199000 # H UNL
315 7 2 0.000000 15.965000 8.154000 17.436001 # H UNL
316 8 3 0.000000 24.235001 17.926001 10.747000 # O UNL
317 8 3 0.000000 22.603001 16.405001 9.953000 # O UNL
318 8 3 0.000000 22.568001 21.215000 11.438000 # O UNL
319 8 3 0.000000 23.010000 18.724001 8.131000 # O UNL
320 8 3 0.000000 23.334000 15.454000 13.100000 # O UNL
321 8 3 0.000000 20.712999 16.412001 13.562000 # O UNL
322 8 3 0.000000 20.787001 14.223000 12.158000 # O UNL
323 8 3 0.000000 22.881001 21.421000 8.580000 # O UNL
324 8 3 0.000000 20.409000 20.388000 11.136000 # O UNL
325 8 3 0.000000 23.785000 20.752001 13.905000 # O UNL
326 8 3 0.000000 22.063999 14.703000 7.850000 # O UNL
327 8 1 0.000000 23.590000 19.174000 10.470000 # C UNL
328 8 1 0.000000 22.485001 19.172001 9.390000 # C UNL
329 8 1 0.000000 23.518000 16.715000 11.002000 # C UNL
330 8 1 0.000000 23.124001 19.915001 11.737000 # C UNL
331 8 1 0.000000 22.865000 16.629000 12.409000 # C UNL
332 8 1 0.000000 21.334000 16.580999 12.275000 # C UNL
333 8 1 0.000000 20.884001 15.420000 11.371000 # C UNL
334 8 1 0.000000 21.867001 15.200000 10.212000 # C UNL
335 8 1 0.000000 21.891001 20.576000 9.202000 # C UNL
336 8 1 0.000000 21.448000 21.153000 10.556000 # C UNL
337 8 1 0.000000 24.288000 20.146999 12.711000 # C UNL
338 8 1 0.000000 21.128000 14.834000 8.921000 # C UNL
339 8 2 0.000000 24.405001 19.778999 10.046000 # H UNL
340 8 2 0.000000 21.673000 18.493999 9.667000 # H UNL
341 8 2 0.000000 24.299999 15.946000 10.958000 # H UNL
342 8 2 0.000000 22.354000 19.350000 12.268000 # H UNL
343 8 2 0.000000 23.174000 17.455000 13.051000 # H UNL
344 8 2 0.000000 20.972000 17.525000 11.852000 # H UNL
345 8 2 0.000000 19.871000 15.631000 11.008000 # H UNL
346 8 2 0.000000 22.582001 14.397000 10.432000 # H UNL
347 8 2 0.000000 21.044001 20.516001 8.509000 # H UNL
348 8 2 0.000000 21.097000 22.180000 10.409000 # H UNL
349 8 2 0.000000 24.785000 19.215000 12.991000 # H UNL
350 8 2 0.000000 25.031000 20.830000 12.285000 # H UNL
351 8 2 0.000000 20.421000 15.619000 8.634000 # H UNL
352 8 2 0.000000 20.586000 13.890000 9.026000 # H UNL
353 8 2 0.000000 23.436001 19.503000 7.720000 # H UNL
354 8 2 0.000000 22.556000 14.919000 13.359000 # H UNL
355 8 2 0.000000 21.065001 17.105000 14.153000 # H UNL
356 8 2 0.000000 20.285999 14.491000 12.958000 # H UNL
357 8 2 0.000000 23.386000 21.860001 9.291000 # H UNL
358 8 2 0.000000 19.927999 20.997999 11.724000 # H UNL
359 8 2 0.000000 23.313000 21.556000 13.616000 # H UNL
360 8 2 0.000000 22.608000 15.517000 7.879000 # H UNL
361 9 3 0.000000 2.186000 13.585000 6.544000 # O UNL
362 9 3 0.000000 2.441000 15.933000 6.367000 # O UNL
363 9 3 0.000000 3.534000 11.998000 3.424000 # O UNL
364 9 3 0.000000 0.596000 14.809000 4.318000 # O UNL
365 9 3 0.000000 4.749000 14.895000 8.588000 # O UNL
366 9 3 0.000000 6.499000 15.590000 6.478000 # O UNL
367 9 3 0.000000 5.354000 17.641001 7.598000 # O UNL
368 9 3 0.000000 0.944000 12.822000 2.468000 # O UNL
369 9 3 0.000000 4.459000 13.975000 2.603000 # O UNL
370 9 3 0.000000 4.990000 10.605000 5.353000 # O UNL
371 9 3 0.000000 1.014000 18.288000 6.523000 # O UNL
372 9 1 0.000000 2.249000 13.208000 5.164000 # C UNL
373 9 1 0.000000 1.924000 14.299000 4.119000 # C UNL
374 9 1 0.000000 2.830000 14.752000 7.065000 # C UNL
375 9 1 0.000000 3.540000 12.455000 4.795000 # C UNL
376 9 1 0.000000 4.370000 14.630000 7.222000 # C UNL
377 9 1 0.000000 5.074000 15.624000 6.283000 # C UNL
378 9 1 0.000000 4.592000 17.065001 6.526000 # C UNL
379 9 1 0.000000 3.097000 17.105000 6.873000 # C UNL
380 9 1 0.000000 2.028000 13.746000 2.690000 # C UNL
381 9 1 0.000000 3.387000 13.060000 2.482000 # C UNL
382 9 1 0.000000 3.736000 11.211000 5.673000 # C UNL
383 9 1 0.000000 2.413000 18.318001 6.237000 # C UNL
384 9 2 0.000000 1.434000 12.475000 5.077000 # H UNL
385 9 2 0.000000 2.616000 15.140000 4.209000 # H UNL
386 9 2 0.000000 2.405000 14.843000 8.073000 # H UNL
387 9 2 0.000000 4.421000 13.091000 4.918000 # H UNL
388 9 2 0.000000 4.717000 13.612000 7.043000 # H UNL
389 9 2 0.000000 4.873000 15.350000 5.242000 # H UNL
390 9 2 0.000000 4.817000 17.664000 5.635000 # H UNL
391 9 2 0.000000 2.933000 17.153000 7.958000 # H UNL
392 9 2 0.000000 1.895000 14.569000 1.978000 # H UNL
393 9 2 0.000000 3.411000 12.610000 1.483000 # H UNL
394 9 2 0.000000 3.743000 11.455000 6.738000 # H UNL
395 9 2 0.000000 2.954000 10.467000 5.486000 # H UNL
396 9 2 0.000000 2.517000 18.304001 5.147000 # H UNL
397 9 2 0.000000 2.826000 19.256001 6.620000 # H UNL
398 9 2 0.000000 -0.007000 14.180000 3.875000 # H UNL
399 9 2 0.000000 5.402000 15.623000 8.590000 # H UNL
400 9 2 0.000000 6.785000 14.660000 6.402000 # H UNL
401 9 2 0.000000 6.288000 17.427000 7.383000 # H UNL
402 9 2 0.000000 1.259000 11.930000 2.707000 # H UNL
403 9 2 0.000000 5.190000 13.596000 2.081000 # H UNL
404 9 2 0.000000 4.967000 10.440000 4.391000 # H UNL
405 9 2 0.000000 0.718000 17.386999 6.280000 # H UNL
406 10 3 0.000000 7.300000 22.531000 12.668000 # O UNL
407 10 3 0.000000 9.664000 22.441000 12.774000 # O UNL
408 10 3 0.000000 6.102000 19.820000 10.369000 # O UNL
409 10 3 0.000000 8.650000 23.098000 10.053000 # O UNL
410 10 3 0.000000 8.537000 21.247000 15.714000 # O UNL
411 10 3 0.000000 9.529000 18.823999 14.644000 # O UNL
412 10 3 0.000000 11.396000 20.525000 15.274000 # O UNL
413 10 3 0.000000 6.877000 21.799000 8.422000 # O UNL
414 10 3 0.000000 8.197000 18.815001 10.171000 # O UNL
415 10 3 0.000000 4.606000 19.230000 12.648000 # O UNL
416 10 3 0.000000 11.912000 24.002001 12.436000 # O UNL
417 10 1 0.000000 7.064000 21.840000 11.436000 # C UNL
418 10 1 0.000000 8.234000 21.775999 10.429000 # C UNL
419 10 1 0.000000 8.442000 22.289000 13.494000 # C UNL
420 10 1 0.000000 6.421000 20.454000 11.628000 # C UNL
421 10 1 0.000000 8.389000 20.966999 14.307000 # C UNL
422 10 1 0.000000 9.506000 20.018000 13.842000 # C UNL
423 10 1 0.000000 10.889000 20.687000 13.940000 # C UNL
424 10 1 0.000000 10.814000 22.181000 13.593000 # C UNL
425 10 1 0.000000 7.831000 21.009001 9.160000 # C UNL
426 10 1 0.000000 7.242000 19.639000 9.530000 # C UNL
427 10 1 0.000000 5.110000 20.548000 12.419000 # C UNL
428 10 1 0.000000 12.045000 22.628000 12.800000 # C UNL
429 10 2 0.000000 6.301000 22.465000 10.951000 # H UNL
430 10 2 0.000000 9.098000 21.271999 10.870000 # H UNL
431 10 2 0.000000 8.411000 23.117001 14.214000 # H UNL
432 10 2 0.000000 7.088000 19.777000 12.169000 # H UNL
433 10 2 0.000000 7.413000 20.485001 14.235000 # H UNL
434 10 2 0.000000 9.326000 19.719999 12.804000 # H UNL
435 10 2 0.000000 11.583000 20.152000 13.281000 # H UNL
436 10 2 0.000000 10.747000 22.805000 14.494000 # H UNL
437 10 2 0.000000 8.711000 20.893000 8.518000 # H UNL
438 10 2 0.000000 6.895000 19.141001 8.618000 # H UNL
439 10 2 0.000000 5.247000 21.027000 13.392000 # H UNL
440 10 2 0.000000 4.347000 21.098000 11.859000 # H UNL
441 10 2 0.000000 12.145000 22.058001 11.870000 # H UNL
442 10 2 0.000000 12.962000 22.511000 13.386000 # H UNL
443 10 2 0.000000 8.036000 23.388000 9.350000 # H UNL
444 10 2 0.000000 9.296000 20.729000 16.052000 # H UNL
445 10 2 0.000000 8.628000 18.450001 14.642000 # H UNL
446 10 2 0.000000 11.255000 19.575001 15.480000 # H UNL
447 10 2 0.000000 5.983000 21.539000 8.719000 # H UNL
448 10 2 0.000000 7.911000 17.899000 10.003000 # H UNL
449 10 2 0.000000 4.536000 18.816000 11.767000 # H UNL
450 10 2 0.000000 11.025000 24.079000 12.030000 # H UNL
451 11 3 0.000000 1.654000 21.351999 17.090000 # O UNL
452 11 3 0.000000 1.572000 19.816000 15.289000 # O UNL
453 11 3 0.000000 5.155000 22.667000 17.381001 # O UNL
454 11 3 0.000000 3.352000 18.916000 17.499001 # O UNL
455 11 3 0.000000 -0.006000 22.598000 14.235000 # O UNL
456 11 3 0.000000 2.296000 22.792999 12.603000 # O UNL
457 11 3 0.000000 0.719000 20.830000 11.947000 # O UNL
458 11 3 0.000000 5.476000 20.136000 18.721001 # O UNL
459 11 3 0.000000 5.878000 21.695999 15.388000 # O UNL
460 11 3 0.000000 3.741000 25.065001 17.201000 # O UNL
461 11 3 0.000000 0.839000 17.229000 14.674000 # O UNL
462 11 1 0.000000 3.057000 21.347000 17.377001 # C UNL
463 11 1 0.000000 3.869000 20.118999 16.908001 # C UNL
464 11 1 0.000000 1.122000 21.072001 15.792000 # C UNL
465 11 1 0.000000 3.764000 22.659000 16.990000 # C UNL
466 11 1 0.000000 1.283000 22.222000 14.761000 # C UNL
467 11 1 0.000000 2.205000 21.773001 13.614000 # C UNL
468 11 1 0.000000 1.689000 20.485001 12.949000 # C UNL
469 11 1 0.000000 1.056000 19.538000 13.979000 # C UNL
470 11 1 0.000000 5.351000 20.254999 17.290001 # C UNL
471 11 1 0.000000 5.906000 21.601999 16.799000 # C UNL
472 11 1 0.000000 3.109000 23.871000 17.666000 # C UNL
473 11 1 0.000000 1.385000 18.076000 13.662000 # C UNL
474 11 2 0.000000 3.079000 21.302999 18.476000 # H UNL
475 11 2 0.000000 3.807000 20.004000 15.823000 # H UNL
476 11 2 0.000000 0.047000 20.952999 15.983000 # H UNL
477 11 2 0.000000 3.733000 22.823999 15.910000 # H UNL
478 11 2 0.000000 1.657000 23.135000 15.226000 # H UNL
479 11 2 0.000000 3.214000 21.597000 14.002000 # H UNL
480 11 2 0.000000 2.522000 20.007999 12.418000 # H UNL
481 11 2 0.000000 -0.037000 19.641001 14.007000 # H UNL
482 11 2 0.000000 5.911000 19.422001 16.851000 # H UNL
483 11 2 0.000000 6.939000 21.709000 17.145000 # H UNL
484 11 2 0.000000 2.042000 23.945000 17.437000 # H UNL
485 11 2 0.000000 3.235000 23.834000 18.754000 # H UNL
486 11 2 0.000000 2.467000 17.908001 13.653000 # H UNL
487 11 2 0.000000 0.971000 17.774000 12.696000 # H UNL
488 11 2 0.000000 3.747000 18.858999 18.392000 # H UNL
489 11 2 0.000000 0.025000 22.518000 13.260000 # H UNL
490 11 2 0.000000 2.546000 23.627001 13.046000 # H UNL
491 11 2 0.000000 1.138000 21.555000 11.435000 # H UNL
492 11 2 0.000000 5.419000 21.034000 19.100000 # H UNL
493 11 2 0.000000 6.575000 22.334000 15.152000 # H UNL
494 11 2 0.000000 4.693000 24.948000 17.381001 # H UNL
495 11 2 0.000000 1.135000 17.615999 15.524000 # H UNL
496 12 3 0.000000 22.327000 12.438000 21.069000 # O UNL
497 12 3 0.000000 22.709000 14.414000 22.316999 # O UNL
498 12 3 0.000000 18.788000 12.475000 19.826000 # O UNL
499 12 3 0.000000 20.650999 12.649000 23.545000 # O UNL
500 12 3 0.000000 24.351000 14.800000 19.402000 # O UNL
501 12 3 0.000000 22.306000 16.707001 18.972000 # O UNL
502 12 3 0.000000 24.011999 17.406000 20.809000 # O UNL
503 12 3 0.000000 18.341999 11.586000 22.531000 # O UNL
504 12 3 0.000000 18.388000 14.674000 20.490000 # O UNL
505 12 3 0.000000 20.150000 12.087000 17.423000 # O UNL
506 12 3 0.000000 23.591000 15.290000 24.778999 # O UNL
507 12 1 0.000000 20.898001 12.364000 21.122999 # C UNL
508 12 1 0.000000 20.195000 13.125000 22.270000 # C UNL
509 12 1 0.000000 23.049000 13.670000 21.149000 # C UNL
510 12 1 0.000000 20.221001 12.653000 19.770000 # C UNL
511 12 1 0.000000 23.010000 14.532000 19.857000 # C UNL
512 12 1 0.000000 22.275999 15.856000 20.132000 # C UNL
513 12 1 0.000000 22.917000 16.620001 21.304001 # C UNL
514 12 1 0.000000 23.417000 15.660000 22.393000 # C UNL
515 12 1 0.000000 18.670000 12.950000 22.198000 # C UNL
516 12 1 0.000000 18.158001 13.312000 20.795000 # C UNL
517 12 1 0.000000 20.739000 11.716000 18.671000 # C UNL
518 12 1 0.000000 23.176001 16.235001 23.791000 # C UNL
519 12 2 0.000000 20.718000 11.300000 21.330999 # H UNL
520 12 2 0.000000 20.417000 14.194000 22.219000 # H UNL
521 12 2 0.000000 24.087000 13.342000 21.291000 # H UNL
522 12 2 0.000000 20.405001 13.681000 19.445000 # H UNL
523 12 2 0.000000 22.549000 13.997000 19.025999 # H UNL
524 12 2 0.000000 21.226999 15.651000 20.370001 # H UNL
525 12 2 0.000000 22.183001 17.333000 21.698999 # H UNL
526 12 2 0.000000 24.492001 15.456000 22.291000 # H UNL
527 12 2 0.000000 18.202000 13.585000 22.959000 # H UNL
528 12 2 0.000000 17.082001 13.111000 20.745001 # H UNL
529 12 2 0.000000 21.825001 11.771000 18.559000 # H UNL
530 12 2 0.000000 20.457001 10.677000 18.871000 # H UNL
531 12 2 0.000000 22.112000 16.429001 23.961000 # H UNL