900
Atoms. Timestep: 0
O 9.50214 22.8337 22.6294
O 11.0837 20.9594 23.3743
O 9.21772 23.3503 19.109
O 12.2402 23.8336 20.8909
O 8.06956 21.0373 24.7942
O 7.28635 19.0637 22.8492
O 9.52589 17.8247 24.0411
O 12.2384 22.4368 18.4012
O 9.14555 20.9622 19.123
O 6.68456 24.4635 20.6975
O 13.0963 19.9928 22.2352
C 10.0324 23.3433 21.3942
C 11.3141 22.7637 20.7352
C 9.8746 21.7209 23.4891
C 8.81312 23.4147 20.454
C 8.52708 21.0383 23.4535
C 8.54715 19.6914 22.705
C 9.76798 18.7994 23.0281
C 11.049 19.533 23.465
C 11.2244 22.0744 19.3457
C 9.82113 22.1411 18.7311
C 8.05911 24.7454 20.48
C 12.2715 18.9655 22.7446
H 10.2879 24.3638 21.6585
H 11.6819 21.9541 21.3332
H 9.93633 22.1464 24.5114
H 8.07153 22.6573 20.7073
H 7.89803 21.672 22.8265
H 8.54491 19.881 21.6241
H 9.98581 18.2629 22.1037
H 11.2512 19.2322 24.4798
H 11.388 21.0194 19.5772
H 9.84366 22.1851 17.6534
H 8.426 25.4254 21.2401
H 8.15136 25.2205 19.5046
H 12.0629 18.2469 21.9325
H 12.8806 18.4323 23.4944
H 12.496 24.2164 20.0223
H 8.02809 20.1071 25.0979
H 6.68085 19.7032 23.2821
H 8.6546 17.9791 24.4611
H 11.8179 22.857 17.6235
H 8.94735 20.5051 18.2844
H 6.23124 24.7633 19.8814
H 13.8967 19.8934 22.7762
O 12.6456 3.7677 4.68207
O 11.6933 4.63071 6.79101
O 15.1431 5.86083 3.14183
O 11.7181 6.92658 3.59294
O 12.9524 1.49484 6.98905
O 15.0555 2.76232 8.5495
O 12.8339 3.61418 10.0553
O 13.4259 8.66768 4.16509
O 16.233 6.74961 5.00163
O 15.4536 2.59897 3.44549
O 10.4877 6.55702 7.8174
C 12.9845 4.9889 3.97344
C 12.7002 6.4151 4.487
C 12.2033 3.53936 6.04634
C 14.4723 4.75712 3.71334
C 13.4022 2.81651 6.67916
C 14.0795 3.56476 7.85214
C 13.0485 4.25734 8.7888
C 11.6524 4.4247 8.19186
C 13.8908 7.39868 4.64183
C 15.2406 6.97519 4.0079
C 14.7305 3.5983 2.73753
C 10.9195 5.63637 8.81696
H 12.4604 4.93803 3.0206
H 12.2779 6.39632 5.46746
H 11.3755 2.83128 5.9952
H 14.9337 4.46459 4.65375
H 14.1576 2.76607 5.90302
H 14.7235 4.34136 7.43464
H 13.4212 5.26331 8.99264
H 11.074 3.54997 8.44394
H 14.0717 7.54516 5.71122
H 15.6329 7.76236 3.36459
H 13.807 3.17079 2.34464
H 15.3381 3.95331 1.90304
H 11.5404 6.16892 9.5404
H 10.0339 5.27137 9.34767
H 10.8897 7.05884 4.10418
H 12.9555 1.40771 7.96667
H 15.1704 1.91984 8.07106
H 13.323 2.76923 10.1212
H 13.9811 8.96129 3.41876
H 16.9385 7.40304 4.80257
H 16.3248 2.554 2.99789
H 9.51462 6.59893 7.92063
O 13.7006 18.8357 7.73166
O 14.4332 16.9982 6.17026
O 10.1835 18.9536 8.24452
O 11.7153 19.6743 5.0796
O 15.7549 16.7202 9.13794
O 13.0112 14.9305 9.31451
O 15.1008 13.7398 7.63727
O 9.2681 18.201 5.28693
O 9.95509 16.5457 8.15792
O 12.3489 19.0438 10.7889
O 15.1718 15.9903 3.72126
C 12.3598 19.1511 7.29871
C 11.6909 18.5915 6.00486
C 14.5922 17.7641 7.35954
C 11.5465 18.8783 8.56504
C 14.4388 16.878 8.58875
C 13.5773 15.6255 8.20444
C 14.2479 14.7639 7.12243
C 15.057 15.6883 6.21351
C 10.3355 17.8192 6.15808
C 9.72912 17.8075 7.56078
C 11.8125 19.8287 9.73762
C 15.1696 15.0612 4.79591
H 12.391 20.2229 7.16627
H 12.3415 17.8626 5.56187
H 15.6164 18.1441 7.32346
H 11.824 17.9056 8.94763
H 13.8783 17.4202 9.34078
H 12.6759 15.9748 7.69853
H 13.4684 14.2799 6.53704
H 16.0788 15.679 6.60144
H 10.5729 16.7798 5.92138
H 8.65757 17.9202 7.50397
H 12.5111 20.6168 9.47625
H 10.8793 20.2608 10.0879
H 14.3843 14.3237 4.62519
H 16.1302 14.5502 4.73281
H 10.8245 19.8869 4.74357
H 15.9584 15.7701 9.1313
H 13.2129 15.4605 10.1111
H 15.0833 13.7985 8.60796
H 8.74131 18.9086 5.7165
H 9.06021 16.1609 8.24031
H 11.6445 19.0391 11.4654
H 15.5589 16.8157 4.07023
O 12.3402 22.5679 1.3495
O 11.0119 20.5669 1.15342
O 13.746 24.038 4.46819
O 10.3779 24.1118 3.3048
O 14.2596 20.2909 0.0146139
O 14.5233 18.173 1.53434
O 11.9392 17.105 1.20245
O 10.6292 23.8975 5.81941
O 13.7367 22.3054 6.09621
O 15.8722 22.8963 2.18913
O 9.02989 20.1572 2.62682
C 12.4085 23.2177 2.65058
C 11.2551 23.0314 3.63631
C 12.3094 21.1431 1.01042
C 13.7766 23.2253 3.3205
C 13.5943 20.352 1.2738
C 13.4558 19.0122 1.99333
C 12.0261 18.3498 1.94969
C 10.8624 19.1509 1.37606
C 11.5867 23.0628 5.15819
C 13.0518 23.4305 5.54856
C 14.8482 23.8478 2.42139
C 9.56379 18.9445 2.15722
H 12.2197 24.2446 2.34996
H 10.7741 22.0824 3.39632
H 12.3883 21.2607 -0.0763769
H 14.0347 22.2126 3.59265
H 14.2132 20.9217 1.94318
H 13.7312 19.1633 3.03947
H 11.8191 18.0608 2.9817
H 10.5729 18.6981 0.455626
H 11.3958 22.0772 5.55337
H 13.0726 24.188 6.3328
H 14.4384 24.1876 1.47007
H 15.2832 24.7115 2.93637
H 9.71284 18.244 2.98224
H 8.82086 18.4852 1.50247
H 9.52146 23.7417 3.01194
H 14.1127 19.4176 -0.406466
H 15.1401 18.1702 2.29583
H 12.7382 16.9413 0.66955
H 11.0835 24.6027 6.31595
H 13.9755 22.563 7.01818
H 16.6757 23.2982 2.57921
H 8.17462 20.1975 2.15283
O 4.65827 11.227 11.8478
O 5.92818 12.2285 9.94554
O 1.32915 12.6068 11.9925
O 4.29688 14.5817 13.077
O 6.14448 9.00693 10.284
O 4.76186 9.09683 7.76969
O 7.32476 10.2897 7.26717
O 2.79857 15.754 11.7626
O 1.20786 13.294 9.8382
O 1.85292 9.52258 12.7217
O 9.06335 13.0024 8.74984
C 3.83066 12.2933 12.3513
C 4.01808 13.772 11.9434
C 5.68127 11.1704 10.8381
C 2.42408 11.7204 12.1402
C 5.18972 10.0195 9.97267
C 5.07529 10.3178 8.45247
C 6.31292 11.081 7.90658
C 6.97634 11.8374 9.05714
C 2.8698 14.4472 11.1942
C 1.50508 13.73 11.1538
C 2.03042 10.8031 13.3019
C 7.65792 13.1264 8.59745
H 4.04497 12.2599 13.4148
H 4.88078 13.855 11.2997
H 6.60858 10.8538 11.3104
H 2.42474 11.0561 11.281
H 4.20655 9.74029 10.354
H 4.18597 10.9156 8.24215
H 5.98651 11.8177 7.1782
H 7.74496 11.1986 9.48534
H 3.22446 14.5486 10.1729
H 0.694693 14.3971 11.4373
H 2.78267 10.7256 14.0815
H 1.09172 11.1419 13.7391
H 7.27849 13.9677 9.18704
H 7.47979 13.307 7.54438
H 5.22515 14.8688 12.934
H 6.63018 8.75966 9.47172
H 4.54336 8.42737 8.44525
H 7.11078 9.34115 7.34577
H 1.90936 15.898 12.1331
H 0.332057 13.6999 9.64163
H 0.896999 9.32246 12.8182
H 9.30528 13.7876 9.2634
O 3.92512 20.9627 21.9908
O 2.19569 19.3651 21.3524
O 2.80087 24.0936 23.3635
O 1.66241 23.0683 20.2428
O 4.65923 18.0403 23.0594
O 2.59927 17.6562 25.0292
O 1.69507 16.1262 22.8322
O 0.028119 24.0647 21.5411
O 1.08463 23.24 24.7839
O 5.4355 22.5708 24.5248
O 0.958488 17.0859 19.3049
C 3.22727 22.2222 21.8514
C 1.72868 22.3984 21.4747
C 3.4859 19.6045 21.8271
C 3.50474 22.877 23.2001
C 3.61084 18.9973 23.2233
C 2.3145 18.3798 23.8163
C 1.51071 17.5517 22.7706
C 1.8574 17.9902 21.3403
C 0.776689 23.18 22.3878
C 1.41027 23.9104 23.5762
C 4.97848 23.2477 23.3694
C 0.661891 17.9529 20.3877
H 3.79432 22.742 21.0806
H 1.22242 21.4549 21.3633
H 4.19018 19.1028 21.1684
H 3.2722 22.1543 23.9811
H 3.9317 19.8002 23.8877
H 1.67256 19.1761 24.201
H 0.446124 17.7422 22.9168
H 2.62093 17.3391 20.9297
H 0.0856107 22.4311 22.7739
H 1.01665 24.9155 23.6716
H 5.57865 22.9443 22.5189
H 5.07785 24.3243 23.5242
H 0.485848 18.9546 19.9938
H -0.233569 17.5991 20.8851
H 1.15253 22.4524 19.6749
H 4.29844 17.1417 23.1967
H 3.53479 17.8238 25.2643
H 2.42657 15.8991 23.4397
H 0.215119 24.9978 21.7724
H 0.560353 23.9008 25.2875
H 5.71751 23.2946 25.1183
H 0.860986 17.6501 18.5112
O 12.183 5.94949 16.6041
O 14.4345 5.89288 17.4997
O 12.1342 3.77384 13.8177
O 13.6886 7.46459 13.8448
O 12.0049 5.11926 19.6966
O 13.556 2.6494 19.6281
O 15.4179 4.58886 20.6827
O 14.1634 5.80709 12.193
O 14.1534 3.03878 14.4962
O 9.45973 4.3414 15.5366
O 16.796 7.72039 18.9701
C 12.4286 5.94456 15.1837
C 13.792 6.21444 14.501
C 13.0602 5.94578 17.7364
C 11.6613 4.66777 14.81
C 12.6826 4.67998 18.5138
C 13.9091 3.76621 18.7921
C 15.1612 4.56596 19.2677
C 15.1349 5.99877 18.7169
C 14.2405 5.17198 13.4749
C 13.5097 3.82687 13.5046
C 10.195 4.9441 14.4807
C 16.5169 6.5079 18.2914
H 11.8321 6.77206 14.8331
H 14.6021 6.3339 15.2074
H 12.8203 6.80485 18.3533
H 11.5984 4.07256 15.7154
H 11.9772 4.12025 17.9066
H 14.1906 3.24125 17.8727
H 16.0296 4.10323 18.8041
H 14.7352 6.69451 19.4479
H 15.2847 4.91924 13.7018
H 13.6083 3.33401 12.5403
H 9.93551 5.99577 14.4256
H 9.96267 4.46679 13.5353
H 16.52 6.69333 17.2136
H 17.3161 5.80834 18.5251
H 14.342 8.01514 14.337
H 12.5246 4.82953 20.476
H 12.581 2.64303 19.714
H 14.7405 4.06601 21.1606
H 13.3287 5.485 11.7826
H 14.5638 2.28645 14.0361
H 8.96564 3.60752 15.1236
H 16.909 8.34765 18.2363
O 24.2124 17.9704 10.9592
O 23.1249 15.9978 10.0669
O 22.5847 21.2323 11.0111
O 23.9045 19.1797 8.17983
O 23.6361 15.8648 13.4023
O 20.8031 15.9801 13.7566
O 20.5666 14.106 11.7096
O 21.8208 21.0427 7.74032
O 20.2397 20.8185 10.7791
O 22.9794 19.9345 14.069
O 21.897 15.994 7.88708
C 23.518 19.1569 10.5178
C 22.832 19.1858 9.138
C 23.629 16.6745 11.2224
C 22.7928 19.9775 11.5966
C 22.8578 16.6913 12.543
C 21.356 16.3678 12.4859
C 20.9579 15.4362 11.3145
C 21.9574 15.1727 10.1791
C 21.695 20.2579 8.93752
C 21.4586 21.205 10.1447
C 23.6196 20.265 12.8512
C 21.248 15.1517 8.8101
H 24.3931 19.7523 10.2812
H 22.3476 18.2337 9.01291
H 24.5059 16.071 11.4702
H 21.8678 19.4819 11.8973
H 22.8924 17.6968 12.9075
H 20.8243 17.3141 12.3305
H 20.0867 15.9161 10.8701
H 22.2819 14.1431 10.2626
H 20.774 19.6802 8.8273
H 21.3102 22.241 9.85008
H 24.5252 19.6808 12.7785
H 23.8513 21.3275 12.8782
H 20.1908 15.4127 8.83027
H 21.328 14.128 8.42914
H 23.8681 19.9135 7.53918
H 23.1372 15.0292 13.538
H 21.4481 16.1399 14.4692
H 20.7963 13.9238 12.6421
H 22.0704 21.9687 7.97274
H 19.6922 21.6188 10.7194
H 23.0106 20.7554 14.6016
H 22.2451 15.3617 7.23961
O 2.7768 13.5172 6.28227
O 2.59337 15.9698 6.11369
O 2.95799 11.9976 3.02902
O 0.0328804 13.5934 4.09349
O 4.9838 14.8979 8.16848
O 6.71382 16.083 6.13336
O 5.23526 18.365 6.57612
O 0.871777 14.1404 1.70212
O 4.36588 13.7499 2.26823
O 4.67344 10.596 5.21269
O 1.03898 17.8408 5.54536
C 2.11816 13.0655 5.07354
C 1.39241 14.0071 4.078
C 3.08813 14.8393 6.78074
C 3.19892 12.2199 4.39716
C 4.62387 14.8478 6.78648
C 5.30299 15.9339 5.89433
C 4.55415 17.2955 5.90458
C 3.18489 17.1687 6.57061
C 1.95925 14.148 2.63664
C 3.07 13.1552 2.23507
C 3.30334 10.7849 4.90127
C 2.2495 18.3178 6.13769
H 1.34041 12.3863 5.4167
H 1.41453 15.0151 4.42466
H 2.72185 14.8905 7.80405
H 4.17111 12.6602 4.5904
H 4.92614 13.892 6.36617
H 5.31494 15.5631 4.86369
H 4.39536 17.6038 4.86937
H 3.32436 17.1897 7.64804
H 2.40668 15.1455 2.57941
H 2.93485 12.7765 1.22432
H 2.67513 10.5912 5.7684
H 3.05131 10.0936 4.0963
H 2.76587 18.9635 5.42078
H 1.98777 18.9166 7.01046
H -0.491904 14.3333 4.47194
H 5.41839 15.7641 8.32812
H 6.99577 15.4085 6.77552
H 5.90378 17.9974 7.18529
H 0.958336 13.3521 1.12948
H 4.71838 13.6272 1.35691
H 4.96491 9.87809 4.61125
H 0.290062 18.2228 6.05326
O 7.2054 22.0558 12.8621
O 9.60835 21.7743 12.6248
O 5.95584 20.2447 10.1266
O 7.05177 23.5206 9.65836
O 8.42584 21.0195 15.5871
O 9.946 18.6804 14.9488
O 11.8384 20.8311 15.2315
O 7.81309 21.8088 7.94724
O 7.87833 18.9101 10.0925
O 5.08981 19.6382 13.262
O 11.8718 24.0089 13.0234
C 6.78925 22.0524 11.4983
C 7.67582 22.4155 10.297
C 8.50227 21.9418 13.4331
C 6.25278 20.6373 11.4403
C 8.56696 20.6248 14.2301
C 9.86512 19.7615 14.005
C 11.1593 20.6481 13.9734
C 10.7424 22.017 13.4326
C 7.95567 21.2814 9.27429
C 7.157 19.9666 9.45292
C 4.93038 20.5143 12.1515
C 11.6901 22.7113 12.479
H 5.97847 22.7721 11.4493
H 8.64785 22.7543 10.6316
H 8.59967 22.7931 14.0915
H 6.92397 19.9865 11.9821
H 7.699 20.022 13.9826
H 9.7969 19.18 13.0807
H 11.9036 20.24 13.2944
H 10.6266 22.6865 14.2757
H 9.00033 21.0453 9.42171
H 6.81931 19.5602 8.50145
H 4.60639 21.4892 12.5025
H 4.21657 20.1095 11.4347
H 11.2373 22.8145 11.497
H 12.6194 22.1582 12.4053
H 7.68346 24.2671 9.75299
H 9.23915 20.7703 16.0524
H 9.08125 18.6203 15.4031
H 11.3778 20.3532 15.9489
H 7.11963 21.31 7.46353
H 7.6916 18.1243 9.53591
H 4.49129 18.8866 13.0712
H 11.5733 24.6283 12.3263
O 1.71991 22.0009 16.8072
O 1.76826 20.1766 15.263
O 4.87299 23.1065 17.8845
O 3.47793 19.8106 18.4341
O -0.247868 22.8028 14.4585
O 1.90385 22.9823 12.4347
O 0.687879 20.4733 11.8239
O 6.24185 20.3472 18.3241
O 6.04509 22.756 15.8039
O 2.8534 25.3673 16.6159
O 0.481762 17.2524 14.3682
C 3.00844 21.8121 17.3982
C 3.95104 20.5846 17.3278
C 1.09056 21.2834 15.766
C 3.67654 23.1642 17.1604
C 1.09965 22.3796 14.7044
C 1.9159 21.9659 13.4544
C 1.5527 20.5285 12.9627
C 1.07988 19.6722 14.1432
C 5.48208 20.8972 17.2466
C 5.84839 22.3914 17.1606
C 2.92089 24.4108 17.6594
C 1.51894 18.1875 14.075
H 2.77286 21.7282 18.4436
H 3.75124 19.9492 16.4783
H 0.0817975 21.0214 16.0684
H 3.79869 23.3191 16.091
H 1.62751 23.2154 15.1654
H 2.96119 21.9877 13.7467
H 2.45306 20.046 12.6524
H 0.0115794 19.7585 14.2667
H 5.80611 20.4312 16.3137
H 6.7816 22.6248 17.6691
H 1.91074 24.1986 17.9973
H 3.48258 24.8545 18.4789
H 2.30445 18.0072 14.8011
H 1.91713 17.9886 13.0845
H 4.19868 19.3905 18.9317
H -0.412357 22.6802 13.5034
H 1.47945 23.7803 12.8117
H 0.348975 21.3593 11.6119
H 6.44373 21.0576 18.9658
H 6.94301 23.1298 15.7775
H 3.32435 0.142706 16.991
H -0.252708 17.7213 14.8209
O 22.3501 12.6653 20.6609
O 22.5974 14.5699 22.1698
O 18.8509 12.4239 19.9246
O 20.307 11.3091 23.2584
O 24.3019 14.8808 19.2374
O 22.3856 17.0335 18.8906
O 23.2134 18.0304 21.4332
O 18.1659 12.4755 23.3353
O 18.4867 14.5963 20.6151
O 21.1469 11.9087 17.6664
O 22.5156 15.221 24.539
C 21.0887 12.1006 21.1153
C 20.3918 12.4715 22.4468
C 23.0612 13.8712 21.0368
C 20.2589 12.3007 19.8364
C 22.9885 14.7645 19.7802
C 22.2479 16.1166 19.9978
C 22.516 16.771 21.3904
C 23.251 15.8086 22.3177
C 19.0057 13.1305 22.3728
C 18.3596 13.2315 20.9817
C 20.5613 11.2302 18.7752
C 23.1291 16.252 23.7848
H 21.2912 11.0342 21.2167
H 20.9837 13.1773 22.993
H 24.1067 13.6069 21.2011
H 20.5991 13.2084 19.3572
H 22.3967 14.2252 19.0521
H 21.179 15.8879 19.9476
H 21.5418 16.9486 21.8551
H 24.2989 15.7613 22.0672
H 19.1283 14.1644 22.7184
H 17.301 12.9822 21.0263
H 21.2591 10.4676 19.1196
H 19.6351 10.7541 18.4551
H 22.5334 17.1615 23.8998
H 24.1284 16.4459 24.1881
H 20.9101 11.4825 24.0152
H 24.5551 15.8225 19.3138
H 22.8001 16.5697 18.1357
H 23.4477 18.3472 20.5374
H 17.4062 12.0575 22.8799
H 17.5901 14.9625 20.7155
H 20.5225 11.7736 16.9242
H 23.2031 14.9935 25.1891
O 17.8771 7.93731 7.65253
O 19.711 9.61202 7.59213
O 17.6541 5.85866 10.5466
O 20.597 5.98458 8.12882
O 16.5502 10.7145 6.92928
O 16.8186 11.8788 9.54211
O 18.7664 12.9161 8.78979
O 21.0557 5.68761 10.9021
O 18.3757 7.31447 12.2689
O 15.0703 7.63639 9.28134
O 22.0122 9.92526 7.91876
C 18.4006 6.87246 8.45516
C 19.8465 6.82217 9.02107
C 18.3863 9.22692 7.28539
C 17.3615 6.84272 9.57645
C 17.2987 10.0586 7.95477
C 17.768 10.8796 9.17193
C 19.1213 11.5573 8.98355
C 19.8942 11.0126 7.77726
C 20.0057 6.61288 10.5666
C 18.7297 6.26046 11.3771
C 15.9418 6.52691 9.07523
C 21.4029 11.1973 7.96609
H 18.2544 6.03557 7.77449
H 20.2958 7.78128 8.89405
H 18.2858 9.29153 6.20289
H 17.3348 7.84237 10.0063
H 16.6587 9.32317 8.40451
H 17.8188 10.2449 10.0618
H 19.7277 11.4665 9.89579
H 19.6475 11.5688 6.88293
H 20.3406 7.58249 10.9463
H 18.8942 5.4059 12.0293
H 15.9429 6.29589 8.0143
H 15.5672 5.66593 9.63406
H 21.6782 11.6745 8.90528
H 21.7755 11.8011 7.13157
H 21.1563 5.32587 8.58518
H 16.7014 11.6811 7.00004
H 15.9543 11.5846 9.19046
H 19.129 13.3521 9.59373
H 20.6557 4.83888 11.1863
H 18.4614 6.9023 13.1581
H 14.3348 7.31218 9.83424
H 22.5806 10.0065 7.1388
O 15.4631 13.5235 15.9057
O 13.8077 15.3699 16.5018
O 17.8469 13.8285 13.457
O 13.8133 14.0423 13.1295
O 16.0499 14.7761 18.7487
O 17.5614 17.0648 17.8038
O 15.1027 18.2819 18.2717
O 15.2356 14.6371 11.3487
O 17.89 16.0746 12.8829
O 17.882 11.0806 15.1307
O 12.1378 16.496 15.3166
C 15.5091 13.4437 14.4781
C 14.9794 14.6107 13.6667
C 14.9065 14.497 16.7954
C 16.9745 13.0529 14.287
C 16.1668 15.0999 17.3704
C 16.452 16.5695 17.0445
C 15.207 17.4721 17.0835
C 13.8603 16.7263 16.9868
C 15.8584 15.1034 12.5316
C 17.3489 14.8001 12.5517
C 17.2148 11.5643 13.9679
C 12.8356 17.4577 16.102
H 14.8568 12.6201 14.1838
H 14.6999 15.4747 14.2505
H 14.456 13.8896 17.5729
H 17.3809 13.16 15.286
H 16.9962 14.5577 16.9144
H 16.8602 16.5941 16.0312
H 15.2843 18.1586 16.2451
H 13.4308 16.803 17.9832
H 15.8165 16.1891 12.5927
H 17.7167 14.5065 11.5706
H 16.2932 11.0012 13.817
H 17.8408 11.4379 13.0876
H 13.2849 18.2362 15.4821
H 12.0953 17.9155 16.7625
H 13.0957 14.63 13.4335
H 15.9287 15.6265 19.22
H 17.9479 16.3184 18.3088
H 15.7184 17.965 18.9621
H 15.7923 13.9201 10.9947
H 18.3569 16.421 12.1029
H 18.7883 10.8451 14.8434
H 12.1513 16.8359 14.3991
O 6.43931 12.8886 18.3226
O 4.34071 12.5155 19.4751
O 8.17478 15.1389 20.1427
O 4.67782 15.7346 17.784
O 6.35478 9.82384 19.4634
O 6.92253 10.6822 22.2099
O 4.13019 10.2511 22.3221
O 6.18 17.5927 18.8846
O 6.86185 15.9076 21.8124
O 9.95806 15.7403 18.5488
O 2.11858 13.4333 19.9872
C 6.50611 14.3279 18.348
C 5.42676 15.2817 18.9175
C 5.49747 11.9674 18.8894
C 7.92868 14.4235 18.953
C 6.39136 11.1927 19.8647
C 6.09428 11.483 21.3517
C 4.57297 11.4466 21.6562
C 3.73283 11.6118 20.3818
C 6.02482 16.4434 19.7226
C 7.31078 16.1935 20.5016
C 9.08168 14.7552 17.994
C 2.34436 12.213 20.6938
H 6.51795 14.6083 17.3024
H 4.68088 14.828 19.5487
H 5.1623 11.2881 18.0986
H 8.13207 13.3998 19.2382
H 7.40243 11.5387 19.7118
H 6.44685 12.4878 21.6046
H 4.33528 12.2945 22.3042
H 3.57639 10.6357 19.937
H 5.30725 16.6347 20.5206
H 7.94161 17.0793 20.5283
H 9.64133 13.8318 17.8824
H 8.70516 15.0746 17.0293
H 2.23407 12.4005 21.765
H 1.57583 11.4963 20.3994
H 4.22768 16.5796 18.0078
H 5.98255 9.31685 20.211
H 7.56186 10.1998 21.6481
H 4.84913 9.58831 22.3487
H 7.14011 17.7134 18.7095
H 7.2705 16.5854 22.368
H 10.0126 16.4865 17.9153
H 1.28974 13.312 19.4763
O 10.0282 9.46305 14.3439
O 9.99116 11.3453 12.7477
O 11.7064 9.31693 17.534
O 13.0039 10.2915 14.1644
O 7.02428 10.5047 14.0396
O 7.11928 13.0129 15.4228
O 8.35273 14.4954 13.543
O 14.2615 11.0961 16.5592
O 11.3863 11.5416 18.4013
O 8.40095 8.59266 17.3944
O 11.5099 12.4731 11.4583
C 11.0824 9.68293 15.2997
C 12.1453 10.7963 15.1908
C 9.29036 10.4566 13.6005
C 10.5688 9.46123 16.7272
C 8.25422 10.9767 14.5851
C 8.36859 12.456 15.0185
C 9.11538 13.374 14.0172
C 9.52124 12.6976 12.7055
C 12.8289 11.2373 16.5379
C 12.2681 10.588 17.8218
C 9.69664 8.21475 16.9534
C 10.6339 13.4573 11.9913
H 11.7363 8.86097 15.0793
H 11.7039 11.6769 14.7441
H 8.72098 9.88074 12.8696
H 9.96083 10.3122 17.0054
H 8.4339 10.4375 15.5014
H 8.94025 12.4505 15.9544
H 9.99397 13.7946 14.515
H 8.67485 12.8204 12.0265
H 12.6006 12.2999 16.6318
H 13.0425 10.3741 18.5647
H 9.59894 7.62694 16.0467
H 10.152 7.5918 17.7291
H 11.1022 14.199 12.6265
H 10.2023 13.9832 11.1521
H 13.9331 10.2172 14.4432
H 6.56991 11.2944 13.6861
H 6.49251 12.285 15.5944
H 7.40725 14.2614 13.4906
H 14.5412 10.385 17.1678
H 11.7203 11.6922 19.2966
H 8.3076 8.14926 18.2648
H 12.4004 12.6818 11.765
O 6.9607 2.20494 11.4683
O 4.90063 3.62847 11.291
O 8.99889 1.58323 8.55798
O 5.36563 0.310324 8.98828
O 7.20787 4.63641 13.4994
O 7.70163 6.86402 11.7668
O 4.92783 7.12132 12.1168
O 5.97423 1.05785 6.78982
O 8.48446 3.39591 7.31313
O 10.2647 1.79373 11.5102
O 2.95933 3.78421 10.1029
C 7.06553 1.43411 10.2435
C 6.04494 1.56181 9.10267
C 6.14051 3.31718 11.9148
C 8.5407 1.68883 9.89078
C 7.14741 4.45923 12.0813
C 6.88721 5.76848 11.3011
C 5.38451 6.11111 11.2023
C 4.41607 4.9683 11.4692
C 6.59164 1.96 7.72081
C 8.12935 2.03628 7.53426
C 9.51305 0.858009 10.7379
C 3.16081 5.09103 10.6029
H 6.99932 0.397843 10.5617
H 5.32694 2.31876 9.36705
H 5.85667 3.04801 12.9278
H 8.76928 2.69275 10.2147
H 8.10209 4.0834 11.7256
H 7.27837 5.65618 10.2883
H 5.20733 6.4574 10.186
H 4.01508 5.10191 12.4718
H 6.20583 2.96076 7.4916
H 8.45071 1.47672 6.65486
H 9.01423 0.161281 11.4091
H 10.1998 0.31435 10.0837
H 3.17752 5.87435 9.83136
H 2.3248 5.30109 11.2731
H 4.43729 0.473317 9.26634
H 6.86199 5.52528 13.7215
H 8.3904 6.51518 12.3676
H 5.60705 7.31229 12.7902
H 6.66096 0.537185 6.32795
H 8.86294 3.4153 6.4078
H 11.1805 1.71844 11.1723
H 2.1861 3.49422 10.6446
O 13.7802 11.3306 24.0198
O 12.1902 13.2418 23.6167
O 12.8683 8.07787 22.6302
O 10.9286 9.88722 25.2156
O 15.2336 13.9013 22.5112
O 14.1048 12.8703 19.9204
O 12.5692 15.1992 20.5199
O 9.56142 8.75237 23.4636
O 11.6675 8.58731 20.7061
O 15.8466 9.37649 22.2949
O 9.86895 13.8062 23.9691
C 12.9278 10.1494 24.0232
C 11.3963 10.2171 23.909
C 13.5085 12.7077 23.6655
C 13.5567 9.2722 22.9378
C 14.2857 12.8339 22.3674
C 13.3567 12.8935 21.1374
C 12.2655 13.9813 21.2275
C 11.9555 14.3048 22.6998
C 10.7078 9.33819 22.8308
C 11.5724 8.28271 22.0928
C 14.9809 8.8186 23.2759
C 10.4504 14.577 22.9147
H 13.0988 9.66829 24.9792
H 11.0852 11.2139 23.6777
H 13.9799 13.3448 24.4077
H 13.6672 9.88386 22.0546
H 14.8333 11.9021 22.262
H 12.8291 11.9371 21.0948
H 11.3615 13.5892 20.7724
H 12.497 15.218 22.9532
H 10.3115 10.0038 22.0601
H 11.1118 7.298 22.147
H 15.2944 9.13188 24.2717
H 15.0297 7.72815 23.2075
H 9.87979 14.3757 22.0055
H 10.3343 15.6263 23.1551
H 10.458 10.6728 -0.427775
H 15.0571 14.5241 21.7802
H 15.0491 12.7869 20.1571
H 13.4883 15.1744 20.19
H 9.64889 7.78057 23.4735
H 11.2211 7.83189 20.2599
H 16.1971 8.60599 21.7991
H 9.44586 14.4333 24.6003
O 18.9914 21.3138 21.6052
O 17.516 22.8114 22.9108
O 18.0809 17.8399 21.4268
O 19.1618 19.5767 24.6819
O 17.726 23.5983 19.6698
O 14.9719 22.4277 19.6897
O 14.9306 24.7574 21.3285
O 17.3604 18.0327 24.9079
O 15.8698 17.9236 21.7617
O 19.5951 19.3424 18.9999
O 16.8479 23.3213 25.1992
C 19.0107 20.0608 22.3395
C 18.2238 19.8314 23.6416
C 18.2324 22.5366 21.735
C 18.6558 19.1111 21.1844
C 17.3195 22.506 20.507
C 15.8098 22.4417 20.8576
C 15.4074 23.5226 21.8928
C 16.5918 23.8908 22.803
C 17.1638 18.715 23.6573
C 17.1042 17.7478 22.4446
C 19.8557 18.8154 20.2924
C 16.1451 24.1295 24.2559
H 20.0614 19.9081 22.5964
H 17.6856 20.7257 23.8938
H 18.9233 23.3666 21.6184
H 17.9825 19.6322 20.5181
H 17.5392 21.5985 19.9623
H 15.581 21.4578 21.2905
H 14.6006 23.1132 22.5067
H 17.0193 24.8144 22.4082
H 16.1814 19.1974 23.7251
H 17.1526 16.7082 22.7665
H 20.7832 19.2408 20.658
H 19.9437 17.7358 20.2104
H 15.0966 23.8956 24.3737
H 16.2951 25.1842 24.4935
H 19.1684 20.3932 25.2299
H 16.9497 24.1751 19.5324
H 15.5509 22.4075 18.9045
H 14.9953 24.7411 20.3499
H 17.5705 17.0907 24.7473
H 15.432 17.0474 21.7881
H 19.6345 18.5613 18.4129
H 17.1915 23.9371 -0.118926
O 15.5273 20.7092 12.4633
O 15.8463 21.5053 14.8273
O 16.3346 22.5967 9.48597
O 14.657 23.75 12.8237
O 17.0213 18.4922 14.0894
O 19.702 19.5718 14.1633
O 19.0743 21.0055 16.3693
O 15.8735 -0.468208 11.1826
O 18.3907 23.7047 9.79979
O 17.2489 19.3914 9.94896
O 15.6942 23.8904 15.6143
C 15.5047 21.9188 11.6772
C 15.8808 23.2915 12.2675
C 15.9577 20.4887 13.8287
C 16.4313 21.617 10.4973
C 17.2817 19.7823 13.5662
C 18.5882 20.466 14.0046
C 18.4071 21.4422 15.179
C 16.9789 21.7823 15.6644
C 16.606 24.2983 11.3098
C 16.9731 23.8013 9.88626
C 16.1428 20.2727 9.79884
C 16.8767 23.2613 16.0951
H 14.4885 22.004 11.3169
H 16.5281 23.1301 13.1171
H 15.2908 19.7152 14.2187
H 17.4361 21.5884 10.9066
H 17.3662 19.7453 12.4894
H 18.9318 21.0567 13.1547
H 18.903 22.3558 14.854
H 16.8506 21.2452 16.5949
H 17.5546 24.5249 11.7936
H 16.6895 24.5337 9.12885
H 15.2449 19.7913 10.1954
H 15.9816 20.4648 8.73802
H 17.7483 23.8482 15.7976
H 16.8234 23.2783 17.1804
H 14.6532 24.716 12.9775
H 17.5905 18.3866 14.8771
H 19.4644 18.6861 13.8237
H 19.144 20.0299 16.374
H 15.3847 -0.448812 10.3318
H 18.6571 24.3835 9.14012
H 17.5489 19.2014 9.02951
H 15.205 24.174 16.417
900
Atoms. Timestep: 100
O 9.53864 22.7876 22.2007
O 11.2061 20.9882 22.8699
O 9.29926 23.721 18.7659
O 12.1809 23.9228 20.6655
O 8.32746 21.2369 24.5871
O 7.47099 18.7926 23.4228
O 10.0157 17.5795 23.6759
O 12.4178 22.9191 18.005
O 9.34816 21.3432 18.8419
O 6.94442 24.8109 20.3632
O 13.1726 20.2181 21.6921
C 10.1353 23.4168 21.0408
C 11.3659 22.8483 20.3517
C 9.97363 21.6575 23.0674
C 8.93594 23.6899 20.1214
C 8.68238 20.8873 23.28
C 8.57331 19.4298 22.8157
C 9.91199 18.6613 22.7829
C 11.1739 19.5945 23.0886
C 11.3944 22.4472 18.8587
C 9.96952 22.5177 18.297
C 8.33082 25.0594 20.2134
C 12.4448 19.1334 22.3071
H 10.4376 24.3741 21.3947
H 11.7697 21.9918 20.8265
H 10.1381 22.1763 24.0597
H 8.13103 22.9943 20.3696
H 7.95037 21.3617 22.5884
H 8.18498 19.531 21.7766
H 10.0427 18.2454 21.7525
H 11.5223 19.3362 24.0737
H 11.578 21.3751 18.9917
H 10.0044 22.5479 17.2231
H 8.6809 -0.372137 21.0314
H 8.52286 -0.445168 19.2598
H 12.1942 18.3945 21.5027
H 13.1413 18.6724 23.0295
H 12.1498 24.5555 19.9142
H 8.18447 20.4275 25.1149
H 6.73667 19.4219 23.6457
H 9.21142 17.5086 24.1792
H 11.9948 23.3239 17.1926
H 9.44853 20.6493 18.154
H 6.52967 25.3738 19.6372
H 13.9834 20.3858 22.1166
O 12.5634 3.83381 4.41814
O 11.7573 4.6433 6.60506
O 15.0978 6.09624 3.21462
O 11.8993 7.13407 3.31633
O 12.9271 1.56187 6.67071
O 14.9178 2.74843 8.46413
O 12.6957 3.55736 9.94229
O 13.4 8.5584 3.88742
O 16.1113 6.79479 5.26082
O 15.3412 2.66229 3.23437
O 10.7599 6.59344 7.28209
C 12.9921 5.08812 3.77559
C 12.685 6.51006 4.3036
C 12.1692 3.59935 5.80853
C 14.4774 4.86058 3.53505
C 13.3685 2.91297 6.53387
C 14 3.64198 7.78315
C 12.9776 4.30607 8.7581
C 11.6788 4.54039 8.03588
C 13.8392 7.46308 4.65077
C 15.2407 7.11095 4.16488
C 14.7963 3.80157 2.51169
C 11.0499 5.89352 8.45384
H 12.5015 4.93662 2.80961
H 12.099 6.50853 5.1838
H 11.403 2.82944 5.83803
H 14.9411 4.46474 4.45799
H 14.1973 2.96453 5.81287
H 14.6069 4.45364 7.36269
H 13.2995 5.31781 9.03924
H 11.0381 3.78496 8.36225
H 13.879 7.72127 5.70825
H 15.5794 7.98867 3.58091
H 13.8792 3.40015 2.0411
H 15.5391 4.16946 1.73802
H 11.633 6.51524 9.17768
H 10.0979 5.7078 8.8922
H 10.9973 7.12665 3.76892
H 12.9451 1.28078 7.57471
H 14.9318 1.937 8.02397
H 13.2712 2.75831 10.0757
H 13.6629 9.35279 4.36504
H 16.9117 7.33965 5.14968
H 16.0854 2.33056 2.66855
H 9.78146 6.6594 7.30085
O 13.6035 18.6156 7.65008
O 14.3372 16.8218 6.35503
O 10.1636 19.0499 7.93931
O 11.7284 19.4272 4.92489
O 15.2858 16.5527 9.58889
O 12.8198 14.6164 9.22635
O 14.5607 13.4274 7.27508
O 9.04536 18.2788 5.21056
O 9.63691 16.65 8.14089
O 12.0068 19.1213 10.5561
O 14.9121 16.4092 4.31424
C 12.3209 18.9112 7.03752
C 11.5783 18.296 5.82064
C 14.4826 17.5213 7.52031
C 11.4833 18.7788 8.29902
C 14.1486 16.7184 8.72906
C 13.4033 15.4348 8.23458
C 14.0661 14.7337 7.0989
C 14.9816 15.6036 6.3966
C 10.0922 17.7851 6.0505
C 9.47308 17.9266 7.44037
C 11.9724 19.8164 9.30355
C 15.3897 15.3426 5.01677
H 12.3744 19.9575 6.84483
H 12.1963 17.5009 5.44145
H 15.4804 17.9253 7.58091
H 11.5613 17.8318 8.79851
H 13.4635 17.2613 9.37032
H 12.5246 15.832 7.74768
H 13.2694 14.6751 6.36899
H 15.8588 15.7083 7.00566
H 10.1913 16.7114 5.89559
H 8.39309 18.0933 7.35785
H 12.9134 20.2611 9.16272
H 11.2742 20.6187 9.39619
H 14.9554 14.4296 4.69468
H 16.5038 15.2509 4.93686
H 10.9595 20.0048 4.91053
H 15.4604 15.5879 9.54053
H 13.0454 14.9976 10.0774
H 14.3637 13.1137 8.16349
H 8.98951 19.2229 5.41563
H 8.72676 16.4325 8.29867
H 11.2837 19.6081 10.9988
H 14.5958 16.2568 3.43081
O 12.6583 22.6725 1.43456
O 10.9498 20.8263 1.49991
O 13.9653 24.0221 4.38337
O 10.2628 24.0706 4.02769
O 13.7428 20.6296 -0.523676
O 14.1987 18.371 0.923155
O 12.4179 17.5721 0.712148
O 11.1995 23.5924 6.08222
O 14.1992 22.09 5.64699
O 15.9496 23.4214 1.71283
O 9.14363 20.2114 2.91781
C 12.3991 23.4777 2.58225
C 11.3513 23.1972 3.75398
C 12.0229 21.4584 0.890606
C 13.8548 23.4596 3.06993
C 13.2975 20.6615 0.809261
C 13.4017 19.3497 1.59181
C 12.0454 18.5529 1.64009
C 10.8228 19.425 1.26661
C 11.953 22.9472 5.15751
C 13.4053 23.2871 5.40709
C 14.9043 24.2762 2.23107
C 9.61502 19.0774 2.10633
H 12.18 24.4686 2.2038
H 10.8567 22.2585 3.47689
H 11.7284 21.6686 -0.128209
H 14.115 22.4032 3.07988
H 14.0494 21.2719 1.30145
H 13.8462 19.5763 2.55707
H 11.9644 18.1598 2.65611
H 10.5988 19.2842 0.25313
H 11.8627 21.8863 5.34505
H 13.5321 23.9561 6.2662
H 14.4604 24.7101 1.34279
H 15.3377 25.0733 2.84273
H 9.87818 18.2368 2.76749
H 8.74123 18.7934 1.4733
H 9.52682 23.7127 3.52265
H 13.5764 19.7635 25.172
H 14.9984 18.1824 1.50418
H 11.625 17.4266 0.143742
H 11.6424 24.3682 6.45628
H 14.6369 22.2602 6.49556
H 16.7516 23.9619 1.86095
H 8.38038 20.5841 2.42947
O 5.10123 11.156 11.6261
O 6.30413 12.3659 9.74053
O 1.78299 12.0852 11.0669
O 4.5425 14.2392 13.0645
O 6.26033 8.93824 10.0385
O 4.89204 9.15778 7.62394
O 7.5502 10.2371 7.00474
O 2.68791 15.4796 12.1527
O 1.84041 13.6638 9.45205
O 1.70848 9.76786 13.462
O 9.31149 12.912 8.10525
C 4.15963 12.086 12.181
C 4.19241 13.5801 11.8803
C 6.10381 11.2274 10.5942
C 2.73786 11.4923 11.9265
C 5.54014 10.1229 9.74119
C 5.33138 10.3558 8.24789
C 6.56065 11.0628 7.65768
C 7.25727 11.9469 8.75112
C 3.04741 14.345 11.2994
C 1.91665 13.4506 10.8081
C 1.97231 11.1809 13.2408
C 7.90863 13.1386 8.1136
H 4.3689 11.9869 13.2405
H 5.00248 13.747 11.1881
H 7.0314 10.8591 10.9941
H 2.89657 10.5186 11.4373
H 4.54054 9.99481 10.1411
H 4.4291 10.9318 8.04949
H 6.19566 11.7335 6.86109
H 8.04304 11.3532 9.15288
H 3.36724 14.8688 10.3811
H 1.01698 13.7944 11.1856
H 2.5015 11.5378 14.0997
H 1.00616 11.6439 13.2321
H 7.65984 13.9986 8.70542
H 7.54933 13.3276 7.11303
H 5.42012 14.6534 12.9778
H 6.68021 8.59474 9.18368
H 4.43059 8.61115 8.30577